Ref.,Limits of Potential Window (V),Lower Limit of Potential Window (V),Upper Limit of Potential Window (V),Potential Window (V),Current Density (A/g),Capacitance (F/g),Specific Surface Area (m^2/g),Charge Transfer Resistance (Rct) (ohm),Equivalent Series Resistance (Rs) (ohm),Electrode Configuration,Pore Size (nm),Pore Volume (cm^3/g),Ratio of ID/IG,N at%,C at%,O at%,Electrolyte Chemical Formula,Electrolyte Ionic Conductivity,Electrolyte Concentration (M),Cell Configuration (three/two electrode system)
DOI: 10.1134/S107042722008008X,0 to 1.0,0,1,1,1,119,,,,GO-TCT-TDDT,,,,,,,H2SO4,7,0.1,three-electrode system
DOI: 10.1134/S107042722008008X,0 to 1.0,0,1,1,2,108,,,,GO-TCT-TDDT,,,,,,,H2SO4,7,0.1,three-electrode system
DOI: 10.1134/S107042722008008X,0 to 1.0,0,1,1,3,98,,,,GO-TCT-TDDT,,,,,,,H2SO4,7,0.1,three-electrode system
DOI: 10.1134/S107042722008008X,0 to 1.0,0,1,1,5,80,,,,GO-TCT-TDDT,,,,,,,H2SO4,7,0.1,three-electrode system
DOI: 10.1007/s10008-019-04394-3,-1.0 to 0,-1,0,1,1,209.32,,,,GH-AgNP (0.01%),,,,,,,KOH,6,6,three-electrode system
DOI: 10.1007/s10008-019-04394-3,-1.0 to 0,-1,0,1,4,178.02,,,,GH-AgNP (0.01%),,,,,,,KOH,6,6,three-electrode system
DOI: 10.1007/s10008-019-04394-3,-1.0 to 0,-1,0,1,1,215.62,,,,GH-AgNP (0.1%),,,,,,,KOH,6,6,three-electrode system
DOI: 10.1007/s10008-019-04394-3,-1.0 to 0,-1,0,1,4,194.38,,,,GH-AgNP (0.1%),,,,,,,KOH,6,6,three-electrode system
DOI: 10.1007/s10008-019-04394-3,-1.0 to 0,-1,0,1,1,194,,,,GH-AgNP (1%),,,,,,,KOH,6,6,three-electrode system
DOI: 10.1007/s10008-019-04394-3,-1.0 to 0,-1,0,1,4,174.76,,,,GH-AgNP (1%),,,,,,,KOH,6,6,three-electrode system
DOI: 10.1007/s10008-019-04394-3,-1.0 to 0,-1,0,1,1,189.33,,,,GH-AgNP (10%),,,,,,,KOH,6,6,three-electrode system
DOI: 10.1007/s10008-019-04394-3,-1.0 to 0,-1,0,1,4,168.27,,,,GH-AgNP (10%),,,,,,,KOH,6,6,three-electrode system
DOI: 10.1007/s10008-019-04394-3,-1.0 to 0,-1,0,1,1,160.94,,,,GH-AgNP (30%),,,,,,,KOH,6,6,three-electrode system
DOI: 10.1007/s10008-019-04394-3,-1.0 to 0,-1,0,1,4,140.6,,,,GH-AgNP (30%),,,,,,,KOH,6,6,three-electrode system
DOI: 10.1007/s10008-019-04394-3,-1.0 to 0,-1,0,1,1,151.72,,,,GH-AgNP (50%),,,,,,,KOH,6,6,three-electrode system
DOI: 10.1007/s10008-019-04394-3,-1.0 to 0,-1,0,1,4,138.28,,,,GH-AgNP (50%),,,,,,,KOH,6,6,three-electrode system
DOI: 10.1557/jmr.2020.93,0 to 0.4,0,0.4,0.4,0.5,645,,,,Ni-BPDC/GO-3,,,,,,,KOH,6,6,three-electrode system
DOI: 10.1557/jmr.2020.93,0 to 0.4,0,0.4,0.4,1,630,,,,Ni-BPDC/GO-3,,,,,,,KOH,6,6,three-electrode system
DOI: 10.1557/jmr.2020.93,0 to 0.4,0,0.4,0.4,2,525,,,,Ni-BPDC/GO-3,,,,,,,KOH,6,6,three-electrode system
DOI: 10.1557/jmr.2020.93,0 to 0.4,0,0.4,0.4,5,487,,,,Ni-BPDC/GO-3,,,,,,,KOH,6,6,three-electrode system
DOI: 10.1557/jmr.2020.93,0 to 0.4,0,0.4,0.4,10,425,,,,Ni-BPDC/GO-3,,,,,,,KOH,6,6,three-electrode system
DOI: 10.1557/jmr.2020.93,0 to 0.4,0,0.4,0.4,20,400,,,,Ni-BPDC/GO-3,,,,,,,KOH,6,6,three-electrode system
DOI: 10.1557/jmr.2020.93,0 to 0.4,0,0.4,0.4,25,375,,,,Ni-BPDC/GO-3,,,,,,,KOH,6,6,three-electrode system
DOI: 10.1557/jmr.2020.93,0 to 0.4,0,0.4,0.4,30,338,,,,Ni-BPDC/GO-3,,,,,,,KOH,6,6,three-electrode system
DOI: 10.1557/jmr.2020.93,0 to 0.4,0,0.4,0.4,40,310,,,,Ni-BPDC/GO-3,,,,,,,KOH,6,6,three-electrode system
DOI: 10.1557/jmr.2020.93,0 to 0.4,0,0.4,0.4,50,300,,,,Ni-BPDC/GO-3,,,,,,,KOH,6,6,three-electrode system
DOI: 10.1557/jmr.2020.93,0 to 0.4,0,0.4,0.4,1,265,,,,Ni-BPDC/GO-1,,,,,,,KOH,6,6,three-electrode system
DOI: 10.1557/jmr.2020.93,0 to 0.4,0,0.4,0.4,1,228,,,,Ni-BPDC/GO-5,,,,,,,KOH,6,6,three-electrode system
DOI: 10.1007/s11664-019-07318-z,-0.2 to 0.8,-0.2,0.8,,5.71,423,32.1,,,manganese dioxide-reduced graphene oxide quantum dot-polyaniline (mGP),,0.157,,,,,H2SO4,7,1,three-electrode system
DOI: 10.1007/s11664-019-07318-z,-0.2 to 0.8,-0.2,0.8,1,14.28,186,32.1,,,manganese dioxide-reduced graphene oxide quantum dot-polyaniline (mGP),,0.157,,,,,H2SO4,7,1,three-electrode system
DOI: 10.1007/s11664-019-07318-z,-0.2 to 0.8,-0.2,0.8,1,8,290,32.1,,,manganese dioxide-reduced graphene oxide quantum dot-polyaniline (mGP),,0.157,,,,,H2SO4,7,1,three-electrode system
DOI: 10.1007/s11664-019-07318-z,-0.2 to 0.8,-0.2,0.8,1,11.5,220,32.1,,,manganese dioxide-reduced graphene oxide quantum dot-polyaniline (mGP),,0.157,,,,,H2SO4,7,1,three-electrode system
DOI: 10.1007/s10853-017-1118-2,0 to 0.8,0,0.8,0.8,1,682,,,,sulfonated polyaniline/quaternized graphene (s-PANINa/q-graphene),,,,,,,H2SO4,7,1,three-electrode system
DOI: 10.1007/s10853-017-1118-2,0 to 0.8,0,0.8,0.8,30,477,,,,sulfonated polyaniline/quaternized graphene (s-PANINa/q-graphene),,,,,,,H2SO4,7,1,three-electrode system
DOI: 10.1007/s10853-017-1118-2,0 to 0.8,0,0.8,0.8,2,672,,,,sulfonated polyaniline/quaternized graphene (s-PANINa/q-graphene),,,,,,,H2SO4,7,1,three-electrode system
DOI: 10.1007/s10853-017-1118-2,0 to 0.8,0,0.8,0.8,3,660,,,,sulfonated polyaniline/quaternized graphene (s-PANINa/q-graphene),,,,,,,H2SO4,7,1,three-electrode system
DOI: 10.1007/s10853-017-1118-2,0 to 0.8,0,0.8,0.8,4,647,,,,sulfonated polyaniline/quaternized graphene (s-PANINa/q-graphene),,,,,,,H2SO4,7,1,three-electrode system
DOI: 10.1007/s10853-017-1118-2,0 to 0.8,0,0.8,0.8,5,638,,,,sulfonated polyaniline/quaternized graphene (s-PANINa/q-graphene),,,,,,,H2SO4,7,1,three-electrode system
DOI: 10.1007/s10853-017-1118-2,0 to 0.8,0,0.8,0.8,7,625,,,,sulfonated polyaniline/quaternized graphene (s-PANINa/q-graphene),,,,,,,H2SO4,7,1,three-electrode system
DOI: 10.1007/s10853-017-1118-2,0 to 0.8,0,0.8,0.8,10,607,,,,sulfonated polyaniline/quaternized graphene (s-PANINa/q-graphene),,,,,,,H2SO4,7,1,three-electrode system
DOI: 10.1134/S1023193519050094,0 to 0.5,0,0.5,0.5,,,,,,G/Cu(OH)2/Cu,,,,,,,KOH,6,1,three-electrode system
DOI: 10.1134/S1023193519050094,0 to 0.5,0,0.5,0.5,,,,,,G/mn3O4/Cu(OH)2/Cu,,,,,,,KOH,6,1,three-electrode system
DOI: 10.1186/s11671-015-0888-1,-0.2 to 0.8,-0.2,0.8,1,1,436,,,,G/PANI nanocomposite (GP 46),,,,,,,H2SO4,7,2,three-electrode system
DOI: 10.1186/s11671-015-0888-1,-0.2 to 0.8,-0.2,0.8,1,0.2,453,,,,G/PANI nanocomposite (GP 46),,,,,,,H2SO4,7,2,three-electrode system
DOI: 10.1186/1556-276X-9-535,0 to 1.0,0,1,1,0.2,253,,,,reduced chemically modified graphene oxide (RCmGO-24),,,1.15,1.71,89.34,8.81,H2SO4,7,2,three-electrode system
DOI: 10.1186/1556-276X-9-535,0 to 1.0,0,1,1,0.5,190,,,,reduced chemically modified graphene oxide (RCmGO-24),,,1.15,1.71,89.34,8.81,H2SO4,7,2,three-electrode system
DOI: 10.1186/1556-276X-9-535,0 to 1.0,0,1,1,1,157,,,,reduced chemically modified graphene oxide (RCmGO-24),,,1.15,1.71,89.34,8.81,H2SO4,7,2,three-electrode system
DOI: 10.1007/s10008-017-3788-8,0 to 0.5,0,0.5,0.5,1,546,,0.10,,Ni3V2O8@GO,,,,0,2.7,21.15,KOH,6,6,three-electrode system
DOI: 10.1007/s10008-017-3788-8,0 to 0.5,0,0.5,0.5,3,350,,0.10,,Ni3V2O8@GO,,,,0,2.7,21.15,KOH,6,6,three-electrode system
DOI: 10.1007/s10008-017-3788-8,0 to 0.5,0,0.5,0.5,5,296,,0.10,,Ni3V2O8@GO,,,,0,2.7,21.15,KOH,6,6,three-electrode system
DOI: 10.1007/s10008-017-3788-8,0 to 0.5,0,0.5,0.5,7,260,,0.10,,Ni3V2O8@GO,,,,0,2.7,21.15,KOH,6,6,three-electrode system
DOI: 10.1007/s10008-017-3788-8,0 to 0.5,0,0.5,0.5,9,245,,0.10,,Ni3V2O8@GO,,,,0,2.7,21.15,KOH,6,6,three-electrode system
DOI: 10.1007/s11051-017-3778-x,0 to 1.0,0,1,1,0.5,284,1487,,,Activated Carbon Graphene composite (2.5% ACG),2.52,0.406,1.19,,,,H2SO4,7,1,three-electrode system
DOI: 10.1007/s10800-017-1122-x,0 to 1.0,0,1,1,0.5,349,66,2.00,2.16,mnO2/3D-NRGO,,0.5,1.12,4.2,72.9,18.5,Na2SO4,3,1,three-electrode system
DOI: 10.1007/s10800-017-1122-x,0 to 1.0,0,1,1,1,261,66,2.00,2.16,mnO2/3D-NRGO,,0.5,1.12,4.2,72.9,18.5,Na2SO4,3,1,three-electrode system
DOI: 10.1007/s10800-017-1122-x,0 to 1.0,0,1,1,2,192,66,2.00,2.16,mnO2/3D-NRGO,,0.5,1.12,4.2,72.9,18.5,Na2SO4,3,1,three-electrode system
DOI: 10.1007/s10800-017-1122-x,0 to 1.0,0,1,1,4,172,66,2.00,2.16,mnO2/3D-NRGO,,0.5,1.12,4.2,72.9,18.5,Na2SO4,3,1,three-electrode system
DOI: 10.1007/s12274-012-0284-4,0 to 0.5,0,0.5,0.5,2,1212,,,,3D graphene/Ni(OH)2 (G/Ni(OH)2),,,,,,,KOH,6,6,three-electrode system
DOI: 10.1007/s12274-012-0284-4,0 to 0.5,0,0.5,0.5,4,950,,,,3D graphene/Ni(OH)2 (G/Ni(OH)2),,,,,,,KOH,6,6,three-electrode system
DOI: 10.1007/s12274-012-0284-4,0 to 0.5,0,0.5,0.5,8,890,,,,3D graphene/Ni(OH)2 (G/Ni(OH)2),,,,,,,KOH,6,6,three-electrode system
DOI: 10.1007/s12274-012-0284-4,0 to 0.5,0,0.5,0.5,16,813,,,,3D graphene/Ni(OH)2 (G/Ni(OH)2),,,,,,,KOH,6,6,three-electrode system
DOI: 10.1007/s12274-012-0284-4,0 to 0.5,0,0.5,0.5,2,1327,105,,,G-CNT/Ni(OH)2,,,,,,,KOH,6,6,three-electrode system
DOI: 10.1007/s12274-012-0284-4,0 to 0.5,0,0.5,0.5,4,1100,105,,,G-CNT/Ni(OH)2,,,,,,,KOH,6,6,three-electrode system
DOI: 10.1007/s12274-012-0284-4,0 to 0.5,0,0.5,0.5,8,1000,105,,,G-CNT/Ni(OH)2,,,,,,,KOH,6,6,three-electrode system
DOI: 10.1007/s12274-012-0284-4,0 to 0.5,0,0.5,0.5,16,943,105,,,G-CNT/Ni(OH)2,,,,,,,KOH,6,6,three-electrode system
DOI: 10.1007/s10854-017-8179-5,0 to 1.0,0,1,1,0.2,188.4,,,,LBCs-G-PPy,,,,,,,H2SO4,7,1,three-electrode system
DOI: 10.1007/s10854-017-8179-5,0 to 1.0,0,1,1,0.2,115.6,,,,LBCs-G,,,,,,,H2SO4,7,1,three-electrode system
DOI: 10.1007/s10854-017-8179-5,0 to 1.0,0,1,1,0.2,106.4,,,,LBCs,,,,,,,H2SO4,7,1,three-electrode system
DOI: 10.1007/s10854-020-03855-0,-0.7 to 0.3,-0.7,0.3,0.6,,,253.4,5.63,1.52,CemO/RGO,8.4,,,0.01,25.49,34.97,Na2SO4,3,0.5,three-electrode system
DOI: 10.1007/s10854-020-03855-0,-0.7 to 0.3,-0.7,0.3,0.6,,,316.6,3.01,1.48,CemO/NPRGO,6,,,3.01,24.32,32.61,Na2SO4,3,0.5,three-electrode system
DOI: 10.1007/s11581-020-03469-w,0 to 0.45,0,0.45,0.45,1,530.7,,,,indium sulfide nanosheet arrays and three-dimensional multi-layered graphene composite (In2S3 NSA/3D GR),,,,,,,KOH,6,6,three-electrode system
DOI: 10.1007/s11581-020-03469-w,0 to 0.45,0,0.45,0.45,2,510,,,,indium sulfide nanosheet arrays and three-dimensional multi-layered graphene composite (In2S3 NSA/3D GR),,,,,,,KOH,6,6,three-electrode system
DOI: 10.1007/s11581-020-03469-w,0 to 0.45,0,0.45,0.45,4,480,,,,indium sulfide nanosheet arrays and three-dimensional multi-layered graphene composite (In2S3 NSA/3D GR),,,,,,,KOH,6,6,three-electrode system
DOI: 10.1007/s11581-020-03469-w,0 to 0.45,0,0.45,0.45,6,470,,,,indium sulfide nanosheet arrays and three-dimensional multi-layered graphene composite (In2S3 NSA/3D GR),,,,,,,KOH,6,6,three-electrode system
DOI: 10.1007/s11581-020-03469-w,0 to 0.45,0,0.45,0.45,8,430,,,,indium sulfide nanosheet arrays and three-dimensional multi-layered graphene composite (In2S3 NSA/3D GR),,,,,,,KOH,6,6,three-electrode system
DOI: 10.1007/s11581-020-03469-w,0 to 0.45,0,0.45,0.45,10,406,,,,indium sulfide nanosheet arrays and three-dimensional multi-layered graphene composite (In2S3 NSA/3D GR),,,,,,,KOH,6,6,three-electrode system
DOI: 10.1007/s11581-019-03360-3,0 to 0.8,0,0.8,0.8,1,690,,,,"three-dimensional hollow graphene balls 
(PANI NWA/3D HGBs)",,,,,,,H2SO4,7,1,three-electrode system
DOI: 10.1007/s11581-019-03360-3,0 to 0.8,0,0.8,0.8,2,680,,,,"three-dimensional hollow graphene balls 
DOI: 10.1007/s11581-019-03360-3,0 to 0.8,0,0.8,0.8,4,650,,,,"three-dimensional hollow graphene balls 
DOI: 10.1007/s11581-019-03360-3,0 to 0.8,0,0.8,0.8,6,600,,,,"three-dimensional hollow graphene balls 
DOI: 10.1007/s11581-019-03360-3,0 to 0.8,0,0.8,0.8,8,550,,,,"three-dimensional hollow graphene balls 
DOI: 10.1007/s11581-019-03360-3,0 to 0.8,0,0.8,0.8,10,510,,,,"three-dimensional hollow graphene balls 
DOI: 10.1007/s11581-017-2300-x,0 to 0.6,0,0.6,0.6,0.2,660,,,,PANI-GR-mn3O4,,,,,,,H2SO4,7,1,two-electrode system
DOI: 10.1007/s11581-017-2300-x,0 to 0.6,0,0.6,0.6,0.4,600,,,,PANI-GR-mn3O4,,,,,,,H2SO4,7,1,two-electrode system
DOI: 10.1007/s11581-017-2300-x,0 to 0.6,0,0.6,0.6,0.6,530,,,,PANI-GR-mn3O4,,,,,,,H2SO4,7,1,two-electrode system
DOI: 10.1007/s11581-017-2300-x,0 to 0.6,0,0.6,0.6,1,460,,,,PANI-GR-mn3O4,,,,,,,H2SO4,7,1,two-electrode system
DOI: 10.1007/s10854-019-01000-0,0 to 0.8,0,0.8,0.8,0.5,403,422,,,PUGF-2,,,,11.02,77.97,11.01,H2SO4,7,1,two-electrode system
DOI: 10.1007/s10854-019-01000-0,0 to 0.8,0,0.8,0.8,8,357,422,,,PUGF-2,,,,11.02,77.97,11.01,H2SO4,7,1,two-electrode system
DOI: 10.1007/s11581-016-1812-0,0 to 0.5,0,0.5,0.5,3,382.94,,,,"CeO2 nanoparticle-decorated GO
(CeO2/GO (1:4))",,,,,,,KOH,6,6,three-electrode system
DOI: 10.1007/s11581-016-1812-0,0 to 0.5,0,0.5,0.5,4,295.69,,,,"CeO2 nanoparticle-decorated GO
DOI: 10.1007/s11581-016-1812-0,0 to 0.5,0,0.5,0.5,5,244.12,,,,"CeO2 nanoparticle-decorated GO
DOI: 10.1007/s11581-016-1812-0,0 to 0.5,0,0.5,0.5,10,137.06,,,,"CeO2 nanoparticle-decorated GO
DOI: 10.1007/s11581-016-1812-0,0 to 0.5,0,0.5,0.5,15,85.68,,,,"CeO2 nanoparticle-decorated GO
DOI: 10.1007/s10854-016-6314-3,-0.2 to 0.5,-0.2,0.5,0.7,0.5,17,,,,GO-GFC,,,1.09,,,,NaOH,,1,three-electrode system
DOI: 10.1007/s10854-016-6314-3,-0.2 to 0.5,-0.2,0.5,0.7,0.5,27,,,,GONa-GFC,,,1.07,,,,NaOH,,1,three-electrode system
DOI: 10.1007/s10854-017-7927-x,-0.2 to 0.8,-0.2,0.8,1,5,960,,,,PPy/C#moO3 nanoparticle/ GNR nanocomposite,,,,,,,H2SO4,7,1,three-electrode system
DOI: 10.1007/s11664-019-07048-2,0.0 to 0.8,0,0.8,0.8,0.5,563,,,,dPANI-RGO,,,,,,,H2SO4,7,1,three-electrode system
DOI: 10.1007/s10854-020-03373-z,-0.6 to 0.8,-0.6,0.8,1.2,1,1544,,,,mnO2@Polyaniline/Carbon nanotubes/Boron-doped graphene (mnO2@ PCBG),,,0.79,,,,H2SO4,7,1,three-electrode system
DOI: 10.1007/s10854-020-03373-z,-0.6 to 0.8,-0.6,0.8,1.2,2,1274,,,,mnO2@Polyaniline/Carbon nanotubes/Boron-doped graphene (mnO2@ PCBG),,,0.79,,,,H2SO4,7,1,three-electrode system
DOI: 10.1007/s10854-020-03373-z,-0.6 to 0.8,-0.6,0.8,1.2,3,1102,,,,mnO2@Polyaniline/Carbon nanotubes/Boron-doped graphene (mnO2@ PCBG),,,0.79,,,,H2SO4,7,1,three-electrode system
DOI: 10.1007/s10854-020-03373-z,-0.6 to 0.8,-0.6,0.8,1.2,4,980,,,,mnO2@Polyaniline/Carbon nanotubes/Boron-doped graphene (mnO2@ PCBG),,,0.79,,,,H2SO4,7,1,three-electrode system
DOI: 10.1007/s10854-020-03373-z,-0.6 to 0.8,-0.6,0.8,1.2,5,964,,,,mnO2@Polyaniline/Carbon nanotubes/Boron-doped graphene (mnO2@ PCBG),,,0.79,,,,H2SO4,7,1,three-electrode system
DOI: 10.1007/s42823-019-00045-9,-0.8 to 0.2,-0.8,0.2,0.4,1,972,,,,Fe3O4 (0.4 m)/rGO,,,,,,,KOH,6,6,three-electrode system
DOI: 10.1007/s42823-019-00045-9,-0.8 to 0.2,-0.8,0.2,0.4,2,578,,,,Fe3O4 (0.4 m)/rGO,,,,,,,KOH,6,6,three-electrode system
DOI: 10.1007/s42823-019-00045-9,-0.8 to 0.2,-0.8,0.2,0.4,3,360,,,,Fe3O4 (0.4 m)/rGO,,,,,,,KOH,6,6,three-electrode system
DOI: 10.1007/s42823-019-00045-9,-0.8 to 0.2,-0.8,0.2,0.4,5,265,,,,Fe3O4 (0.4 m)/rGO,,,,,,,KOH,6,6,three-electrode system
DOI: 10.1007/s10854-020-04108-w,-0.2 to 0.7,-0.2,0.7,0.9,,,,,,ZnO@rGO,,,1.16,,,,KOH,6,0.1,three-electrode system
DOI: 10.1007/s11581-018-2677-1,0 to 0.5,0,0.5,0.5,1,626.84,,,,Ni(OH)2/rGO,,,,,,,KOH,6,6,three-electrode system
DOI: 10.1007/s11581-018-2677-1,0 to 0.5,0,0.5,0.5,2,544.32,,,,Ni(OH)2/rGO,,,,,,,KOH,6,6,three-electrode system
DOI: 10.1007/s11581-018-2677-1,0 to 0.5,0,0.5,0.5,3,444.17,,,,Ni(OH)2/rGO,,,,,,,KOH,6,6,three-electrode system
DOI: 10.1007/s11581-018-2677-1,0 to 0.5,0,0.5,0.5,4,371.67,,,,Ni(OH)2/rGO,,,,,,,KOH,6,6,three-electrode system
DOI: 10.1007/s11581-018-2677-1,0 to 0.5,0,0.5,0.5,5,316.8,,,,Ni(OH)2/rGO,,,,,,,KOH,6,6,three-electrode system
DOI: 10.1007/s10854-021-07046-3,-1.0 to 0,-1,0,1,1,254,,0.18,0.48,rGO-3,,,1.098,8.07,85,6.93,KOH,6,6,three-electrode system
DOI: 10.1007/s10854-021-07046-3,-1.0 to 0,-1,0,1,2,243,,0.18,0.48,rGO-3,,,1.098,8.07,85,6.93,KOH,6,6,three-electrode system
DOI: 10.1007/s10854-021-07046-3,-1.0 to 0,-1,0,1,5,232,,0.18,0.48,rGO-3,,,1.098,8.07,85,6.93,KOH,6,6,three-electrode system
DOI: 10.1007/s10854-021-07046-3,-1.0 to 0,-1,0,1,10,228,,0.18,0.48,rGO-3,,,1.098,8.07,85,6.93,KOH,6,6,three-electrode system
DOI: 10.1007/s10854-021-07046-3,-1.0 to 0,-1,0,1,20,216,,0.18,0.48,rGO-3,,,1.098,8.07,85,6.93,KOH,6,6,three-electrode system
DOI: 10.1007/s10854-021-07046-3,-1.0 to 0,-1,0,1,50,216,,0.18,0.48,rGO-3,,,1.098,8.07,85,6.93,KOH,6,6,three-electrode system
DOI: 10.1007/s10854-021-07046-3,-1.0 to 0,-1,0,1,1,244,,0.74,0.47,rGO-1,,,1.077,7.05,86.21,6.73,KOH,6,6,three-electrode system
DOI: 10.1007/s10854-021-07046-3,-1.0 to 0,-1,0,1,1,240,,1.37,0.42,rGO-2,,,1.1,7.84,85.17,6.99,KOH,6,6,three-electrode system
DOI: 10.1007/s10854-021-07046-3,-1.0 to 0,-1,0,1,1,231,,0.24,0.42,rGO-4,,,1.12,6.99,85.5,7.96,KOH,6,6,three-electrode system
DOI: 10.1007/s10008-020-04713-z,-1.1 to -0.2,-1.1,-0.2,0.9,0.07,1132.9,,,,rGO-CuS5,22,,,0,30.34,23.67,LiClO4,,1,three-electrode system
DOI: 10.1007/s11051-014-2432-0,-0.3 to 0.8,-0.3,0.8,1.1,,,,,,graphene/polyaniline hybrid hollow microsphere,,,,,,,H2SO4,7,1,three-electrode system
DOI: 10.1007/s10854-022-07890-x,0 to 1.0,0,1,1,1,683,8.896,0.60,0.50,(ZIAmPH @ GQDx=50 mg)sonic (ZIAmPHGQD2),3.45,,1.05,,,,H2SO4,7,2,three-electrode system
DOI: 10.1007/s10854-022-07890-x,0 to 1.0,0,1,1,2,518,8.896,0.60,0.50,(ZIAmPH @ GQDx=50 mg)sonic (ZIAmPHGQD2),3.45,,1.05,,,,H2SO4,7,2,three-electrode system
DOI: 10.1007/s10854-022-07890-x,0 to 1.0,0,1,1,3,466,8.896,0.60,0.50,(ZIAmPH @ GQDx=50 mg)sonic (ZIAmPHGQD2),3.45,,1.05,,,,H2SO4,7,2,three-electrode system
DOI: 10.1007/s10854-022-07890-x,0 to 1.0,0,1,1,5,358,8.896,0.60,0.50,(ZIAmPH @ GQDx=50 mg)sonic (ZIAmPHGQD2),3.45,,1.05,,,,H2SO4,7,2,three-electrode system
DOI: 10.1007/s10854-022-07890-x,0 to 1.0,0,1,1,10,239,8.896,0.60,0.50,(ZIAmPH @ GQDx=50 mg)sonic (ZIAmPHGQD2),3.45,,1.05,,,,H2SO4,7,2,three-electrode system
DOI: 10.1007/s10854-022-07890-x,0 to 1.0,0,1,1,20,147,8.896,0.60,0.50,(ZIAmPH @ GQDx=50 mg)sonic (ZIAmPHGQD2),3.45,,1.05,,,,H2SO4,7,2,three-electrode system
DOI: 10.1007/s11581-016-1803-1,-0.2 to 0.8,-0.2,0.8,1,1,575,,,,NG/H-PPy,,,,7.14,77.16,15.71,HCl,,1,three-electrode system
DOI: 10.1186/s11671-017-2010-3,0 to 1,0,1,1,1,96.16,,,,CBF/PPy-rGO-2,,,,6.79,71,18.69,solid-state electrolyte,,,two-electrode system
DOI: 10.1007/s10008-017-3831-9,-0.2 to 0.8,-0.2,0.8,1,10,1140,,,,Fe3+-Zn2+-PANI/GO ,,,,,,,Na2SO4,3,0.5,three-electrode system
DOI: 10.1007/s10008-017-3732-y,0 to 0.6,0,0.6,0.6,0.35,310,,,,PANI-SA-SGO-TiO2(1:1),,,,,,,H2SO4,7,1,two-electrode system
DOI: 10.1007/s10008-017-3732-y,0 to 0.6,0,0.6,0.6,0.35,366,,,,PANI-SA-SGO-TiO2(3:1),,,,,,,H2SO4,7,1,two-electrode system
DOI: 10.1007/s10008-017-3732-y,0 to 0.6,0,0.6,0.6,0.35,422,,,,PANI-SA-SGO-TiO2(5:1),,,,,,,H2SO4,7,1,two-electrode system
DOI: 10.1007/s10008-017-3732-y,0 to 0.6,0,0.6,0.6,0.35,480,,,,PANI-SA-SGO-TiO2(7:1),,,,,,,H2SO4,7,1,two-electrode system
DOI: 10.1007/s10008-017-3732-y,0 to 0.6,0,0.6,0.6,0.7,460,,,,PANI-SA-SGO-TiO2(7:1),,,,,,,H2SO4,7,1,two-electrode system
DOI: 10.1007/s10008-017-3732-y,0 to 0.6,0,0.6,0.6,1.7,422,,,,PANI-SA-SGO-TiO2(7:1),,,,,,,H2SO4,7,1,two-electrode system
DOI: 10.1007/s10008-017-3732-y,0 to 0.6,0,0.6,0.6,3.5,400,,,,PANI-SA-SGO-TiO2(7:1),,,,,,,H2SO4,7,1,two-electrode system
DOI: 10.1007/s10008-017-3732-y,0 to 0.6,0,0.6,0.6,7,360,,,,PANI-SA-SGO-TiO2(7:1),,,,,,,H2SO4,7,1,two-electrode system
DOI: 10.1007/s10008-017-3732-y,0 to 0.6,0,0.6,0.6,0.35,440,,,,PANI-SA-SGO-TiO2(10:1),,,,,,,H2SO4,7,1,two-electrode system
DOI: 10.1007/s10008-015-3094-2,-0.2 to 0.8,-0.2,0.8,1,5,825,76.13,,,PPy/moO3/GNR,,0.29,,,,,H2SO4,7,1,three-electrode system
DOI: 10.1007/s10008-015-3094-2,-0.2 to 0.8,-0.2,0.8,1,7,750,76.13,,,PPy/moO3/GNR,,0.29,,,,,H2SO4,7,1,three-electrode system
DOI: 10.1007/s10008-015-3094-2,-0.2 to 0.8,-0.2,0.8,1,9,670,76.13,,,PPy/moO3/GNR,,0.29,,,,,H2SO4,7,1,three-electrode system
DOI: 10.1007/s10008-015-3094-2,-0.2 to 0.8,-0.2,0.8,1,12,600,76.13,,,PPy/moO3/GNR,,0.29,,,,,H2SO4,7,1,three-electrode system
DOI: 10.1007/s10008-015-3094-2,-0.2 to 0.8,-0.2,0.8,1,15,560,76.13,,,PPy/moO3/GNR,,0.29,,,,,H2SO4,7,1,three-electrode system
DOI: 10.1007/s11581-019-03331-8,0 to 0.4,0,0.4,0.4,0.5,739,113.25,,,CoS2/ GO-0.25,,0.16,,,,,KOH,6,6,three-electrode system
DOI: 10.1007/s11581-019-03331-8,0 to 0.4,0,0.4,0.4,0.5,842,309.98,,,CoS2/GO-0.5,,0.216,,,,,KOH,6,6,three-electrode system
DOI: 10.1007/s11581-019-03331-8,0 to 0.4,0,0.4,0.4,10,649,309.98,,,CoS2/GO-0.5,,0.216,,,,,KOH,6,6,three-electrode system